ITEM: TIMESTEP
0          0
ITEM: NUMBER OF ATOMS
15872
ITEM: BOX BOUNDS
0 1
0 1
0 1
ITEM: ATOMS id i1 i2 x y z
1 0 0 0.41324 0.14182 0.03513 
2 0 0 0.41324 0.64182 0.03513 
3 0 0 0.91324 0.14182 0.03513 
4 0 0 0.91324 0.64182 0.03513 
5 0 0 0.23275 0.31274 0.20062 
6 0 0 0.23275 0.81274 0.20062 
7 0 0 0.73275 0.31274 0.20062 
8 0 0 0.73275 0.81274 0.20062 
9 0 0 0.05226 0.48365 0.36611 
10 0 0 0.05226 0.98365 0.36611 
11 0 0 0.55226 0.48365 0.36611 
12 0 0 0.55226 0.98365 0.36611 
13 0 0 0.37177 0.15457 0.5316 
14 0 0 0.37177 0.65457 0.5316 
15 0 0 0.87177 0.15457 0.5316 
16 0 0 0.87177 0.65457 0.5316 
17 0 0 0.19127 0.32549 0.69709 
18 0 0 0.19127 0.82549 0.69709 
19 0 0 0.69127 0.32549 0.69709 
20 0 0 0.69127 0.82549 0.69709 
21 0 0 0.36812 0.05955 0.0765 
22 0 0 0.36812 0.55955 0.0765 
23 0 0 0.86812 0.05955 0.0765 
24 0 0 0.86812 0.55955 0.0765 
25 0 0 0.18763 0.23047 0.24199 
26 0 0 0.18763 0.73047 0.24199 
27 0 0 0.68763 0.23047 0.24199 
28 0 0 0.68763 0.73047 0.24199 
29 0 0 0.00714 0.40138 0.40748 
30 0 0 0.00714 0.90138 0.40748 
31 0 0 0.50714 0.40138 0.40748 
32 0 0 0.50714 0.90138 0.40748 
33 0 0 0.32664 0.0723 0.57297 
34 0 0 0.32664 0.5723 0.57297 
35 0 0 0.82664 0.0723 0.57297 
36 0 0 0.82664 0.5723 0.57297 
37 0 0 0.14615 0.24322 0.73847 
38 0 0 0.14615 0.74322 0.73847 
39 0 0 0.64615 0.24322 0.73847 
40 0 0 0.64615 0.74322 0.73847 
41 0 0 0.323 0.47728 0.11787 
42 0 0 0.323 0.97728 0.11787 
43 0 0 0.823 0.47728 0.11787 
44 0 0 0.823 0.97728 0.11787 
45 0 0 0.1425 0.1482 0.28336 
46 0 0 0.1425 0.6482 0.28336 
47 0 0 0.6425 0.1482 0.28336 
48 0 0 0.6425 0.6482 0.28336 
49 0 0 0.46201 0.31911 0.44885 
50 0 0 0.46201 0.81911 0.44885 
51 0 0 0.96201 0.31911 0.44885 
52 0 0 0.96201 0.81911 0.44885 
53 0 0 0.28152 0.49003 0.61435 
54 0 0 0.28152 0.99003 0.61435 
55 0 0 0.78152 0.49003 0.61435 
56 0 0 0.78152 0.99003 0.61435 
57 0 0 0.10103 0.16095 0.77984 
58 0 0 0.10103 0.66095 0.77984 
59 0 0 0.60103 0.16095 0.77984 
60 0 0 0.60103 0.66095 0.77984 
61 0 0 0.27787 0.39501 0.15924 
62 0 0 0.27787 0.89501 0.15924 
63 0 0 0.77787 0.39501 0.15924 
64 0 0 0.77787 0.89501 0.15924 
65 0 0 0.09738 0.06593 0.32474 
66 0 0 0.09738 0.56593 0.32474 
67 0 0 0.59738 0.06593 0.32474 
68 0 0 0.59738 0.56593 0.32474 
69 0 0 0.41689 0.23684 0.49023 
70 0 0 0.41689 0.73684 0.49023 
71 0 0 0.91689 0.23684 0.49023 
72 0 0 0.91689 0.73684 0.49023 
73 0 0 0.2364 0.40776 0.65572 
74 0 0 0.2364 0.90776 0.65572 
75 0 0 0.7364 0.40776 0.65572 
76 0 0 0.7364 0.90776 0.65572 
77 0 0 0.0559 0.07868 0.82121 
78 0 0 0.0559 0.57868 0.82121 
79 0 0 0.5559 0.07868 0.82121 
80 0 0 0.5559 0.57868 0.82121 
81 0 0 0.36812 0.18455 0.0765 
82 0 0 0.36812 0.68455 0.0765 
83 0 0 0.86812 0.18455 0.0765 
84 0 0 0.86812 0.68455 0.0765 
85 0 0 0.18763 0.35547 0.24199 
86 0 0 0.18763 0.85547 0.24199 
87 0 0 0.68763 0.35547 0.24199 
88 0 0 0.68763 0.85547 0.24199 
89 0 0 0.00714 0.02638 0.40748 
90 0 0 0.00714 0.52638 0.40748 
91 0 0 0.50714 0.02638 0.40748 
92 0 0 0.50714 0.52638 0.40748 
93 0 0 0.32664 0.1973 0.57297 
94 0 0 0.32664 0.6973 0.57297 
95 0 0 0.82664 0.1973 0.57297 
96 0 0 0.82664 0.6973 0.57297 
97 0 0 0.14615 0.36822 0.73847 
98 0 0 0.14615 0.86822 0.73847 
99 0 0 0.64615 0.36822 0.73847 
100 0 0 0.64615 0.86822 0.73847 
101 0 0 0.323 0.10228 0.11787 
102 0 0 0.323 0.60228 0.11787 
103 0 0 0.823 0.10228 0.11787 
104 0 0 0.823 0.60228 0.11787 
105 0 0 0.1425 0.2732 0.28336 
106 0 0 0.1425 0.7732 0.28336 
107 0 0 0.6425 0.2732 0.28336 
108 0 0 0.6425 0.7732 0.28336 
109 0 0 0.46201 0.44411 0.44885 
110 0 0 0.46201 0.94411 0.44885 
111 0 0 0.96201 0.44411 0.44885 
112 0 0 0.96201 0.94411 0.44885 
113 0 0 0.28152 0.11503 0.61435 
114 0 0 0.28152 0.61503 0.61435 
115 0 0 0.78152 0.11503 0.61435 
116 0 0 0.78152 0.61503 0.61435 
117 0 0 0.10103 0.28595 0.77984 
118 0 0 0.10103 0.78595 0.77984 
119 0 0 0.60103 0.28595 0.77984 
120 0 0 0.60103 0.78595 0.77984 
121 0 0 0.27787 0.02001 0.15924 
122 0 0 0.27787 0.52001 0.15924 
123 0 0 0.77787 0.02001 0.15924 
124 0 0 0.77787 0.52001 0.15924 
125 0 0 0.09738 0.19093 0.32474 
126 0 0 0.09738 0.69093 0.32474 
127 0 0 0.59738 0.19093 0.32474 
128 0 0 0.59738 0.69093 0.32474 
129 0 0 0.41689 0.36184 0.49023 
130 0 0 0.41689 0.86184 0.49023 
131 0 0 0.91689 0.36184 0.49023 
132 0 0 0.91689 0.86184 0.49023 
133 0 0 0.2364 0.03276 0.65572 
134 0 0 0.2364 0.53276 0.65572 
135 0 0 0.7364 0.03276 0.65572 
136 0 0 0.7364 0.53276 0.65572 
137 0 0 0.0559 0.20368 0.82121 
138 0 0 0.0559 0.70368 0.82121 
139 0 0 0.5559 0.20368 0.82121 
140 0 0 0.5559 0.70368 0.82121 
141 0 0 0.41324 0.26682 0.03513 
142 0 0 0.41324 0.76682 0.03513 
143 0 0 0.91324 0.26682 0.03513 
144 0 0 0.91324 0.76682 0.03513 
145 0 0 0.23275 0.43774 0.20062 
146 0 0 0.23275 0.93774 0.20062 
147 0 0 0.73275 0.43774 0.20062 
148 0 0 0.73275 0.93774 0.20062 
149 0 0 0.05226 0.10865 0.36611 
150 0 0 0.05226 0.60865 0.36611 
151 0 0 0.55226 0.10865 0.36611 
152 0 0 0.55226 0.60865 0.36611 
153 0 0 0.37177 0.27957 0.5316 
154 0 0 0.37177 0.77957 0.5316 
155 0 0 0.87177 0.27957 0.5316 
156 0 0 0.87177 0.77957 0.5316 
157 0 0 0.19127 0.45049 0.69709 
158 0 0 0.19127 0.95049 0.69709 
159 0 0 0.69127 0.45049 0.69709 
160 0 0 0.69127 0.95049 0.69709 
161 0 0 0.323 0.22728 0.11787 
162 0 0 0.323 0.72728 0.11787 
163 0 0 0.823 0.22728 0.11787 
164 0 0 0.823 0.72728 0.11787 
165 0 0 0.1425 0.3982 0.28336 
166 0 0 0.1425 0.8982 0.28336 
167 0 0 0.6425 0.3982 0.28336 
168 0 0 0.6425 0.8982 0.28336 
169 0 0 0.46201 0.06911 0.44885 
170 0 0 0.46201 0.56911 0.44885 
171 0 0 0.96201 0.06911 0.44885 
172 0 0 0.96201 0.56911 0.44885 
173 0 0 0.28152 0.24003 0.61435 
174 0 0 0.28152 0.74003 0.61435 
175 0 0 0.78152 0.24003 0.61435 
176 0 0 0.78152 0.74003 0.61435 
177 0 0 0.10103 0.41095 0.77984 
178 0 0 0.10103 0.91095 0.77984 
179 0 0 0.60103 0.41095 0.77984 
180 0 0 0.60103 0.91095 0.77984 
181 0 0 0.27787 0.14501 0.15924 
182 0 0 0.27787 0.64501 0.15924 
183 0 0 0.77787 0.14501 0.15924 
184 0 0 0.77787 0.64501 0.15924 
185 0 0 0.09738 0.31593 0.32474 
186 0 0 0.09738 0.81593 0.32474 
187 0 0 0.59738 0.31593 0.32474 
188 0 0 0.59738 0.81593 0.32474 
189 0 0 0.41689 0.48684 0.49023 
190 0 0 0.41689 0.98684 0.49023 
191 0 0 0.91689 0.48684 0.49023 
192 0 0 0.91689 0.98684 0.49023 
193 0 0 0.2364 0.15776 0.65572 
194 0 0 0.2364 0.65776 0.65572 
195 0 0 0.7364 0.15776 0.65572 
196 0 0 0.7364 0.65776 0.65572 
197 0 0 0.0559 0.32868 0.82121 
198 0 0 0.0559 0.82868 0.82121 
199 0 0 0.5559 0.32868 0.82121 
200 0 0 0.5559 0.82868 0.82121 
201 0 0 0.41324 0.39182 0.03513 
202 0 0 0.41324 0.89182 0.03513 
203 0 0 0.91324 0.39182 0.03513 
204 0 0 0.91324 0.89182 0.03513 
205 0 0 0.23275 0.06274 0.20062 
206 0 0 0.23275 0.56274 0.20062 
207 0 0 0.73275 0.06274 0.20062 
208 0 0 0.73275 0.56274 0.20062 
209 0 0 0.05226 0.23365 0.36611 
210 0 0 0.05226 0.73365 0.36611 
211 0 0 0.55226 0.23365 0.36611 
212 0 0 0.55226 0.73365 0.36611 
213 0 0 0.37177 0.40457 0.5316 
214 0 0 0.37177 0.90457 0.5316 
215 0 0 0.87177 0.40457 0.5316 
216 0 0 0.87177 0.90457 0.5316 
217 0 0 0.19127 0.07549 0.69709 
218 0 0 0.19127 0.57549 0.69709 
219 0 0 0.69127 0.07549 0.69709 
220 0 0 0.69127 0.57549 0.69709 
221 0 0 0.36812 0.30955 0.0765 
222 0 0 0.36812 0.80955 0.0765 
223 0 0 0.86812 0.30955 0.0765 
224 0 0 0.86812 0.80955 0.0765 
225 0 0 0.18763 0.48047 0.24199 
226 0 0 0.18763 0.98047 0.24199 
227 0 0 0.68763 0.48047 0.24199 
228 0 0 0.68763 0.98047 0.24199 
229 0 0 0.00714 0.15138 0.40748 
230 0 0 0.00714 0.65138 0.40748 
231 0 0 0.50714 0.15138 0.40748 
232 0 0 0.50714 0.65138 0.40748 
233 0 0 0.32664 0.3223 0.57297 
234 0 0 0.32664 0.8223 0.57297 
235 0 0 0.82664 0.3223 0.57297 
236 0 0 0.82664 0.8223 0.57297 
237 0 0 0.14615 0.49322 0.73847 
238 0 0 0.14615 0.99322 0.73847 
239 0 0 0.64615 0.49322 0.73847 
240 0 0 0.64615 0.99322 0.73847 
241 0 0 0.27787 0.27001 0.15924 
242 0 0 0.27787 0.77001 0.15924 
243 0 0 0.77787 0.27001 0.15924 
244 0 0 0.77787 0.77001 0.15924 
245 0 0 0.09738 0.44093 0.32474 
246 0 0 0.09738 0.94093 0.32474 
247 0 0 0.59738 0.44093 0.32474 
248 0 0 0.59738 0.94093 0.32474 
249 0 0 0.41689 0.11184 0.49023 
250 0 0 0.41689 0.61184 0.49023 
251 0 0 0.91689 0.11184 0.49023 
252 0 0 0.91689 0.61184 0.49023 
253 0 0 0.2364 0.28276 0.65572 
254 0 0 0.2364 0.78276 0.65572 
255 0 0 0.7364 0.28276 0.65572 
256 0 0 0.7364 0.78276 0.65572 
257 0 0 0.0559 0.45368 0.82121 
258 0 0 0.0559 0.95368 0.82121 
259 0 0 0.5559 0.45368 0.82121 
260 0 0 0.5559 0.95368 0.82121 
261 0 0 0.41324 0.01682 0.03513 
262 0 0 0.41324 0.51682 0.03513 
263 0 0 0.91324 0.01682 0.03513 
264 0 0 0.91324 0.51682 0.03513 
265 0 0 0.23275 0.18774 0.20062 
266 0 0 0.23275 0.68774 0.20062 
267 0 0 0.73275 0.18774 0.20062 
268 0 0 0.73275 0.68774 0.20062 
269 0 0 0.05226 0.35865 0.36611 
270 0 0 0.05226 0.85865 0.36611 
271 0 0 0.55226 0.35865 0.36611 
272 0 0 0.55226 0.85865 0.36611 
273 0 0 0.37177 0.02957 0.5316 
274 0 0 0.37177 0.52957 0.5316 
275 0 0 0.87177 0.02957 0.5316 
276 0 0 0.87177 0.52957 0.5316 
277 0 0 0.19127 0.20049 0.69709 
278 0 0 0.19127 0.70049 0.69709 
279 0 0 0.69127 0.20049 0.69709 
280 0 0 0.69127 0.70049 0.69709 
281 0 0 0.36812 0.43455 0.0765 
282 0 0 0.36812 0.93455 0.0765 
283 0 0 0.86812 0.43455 0.0765 
284 0 0 0.86812 0.93455 0.0765 
285 0 0 0.18763 0.10547 0.24199 
286 0 0 0.18763 0.60547 0.24199 
287 0 0 0.68763 0.10547 0.24199 
288 0 0 0.68763 0.60547 0.24199 
289 0 0 0.00714 0.27638 0.40748 
290 0 0 0.00714 0.77638 0.40748 
291 0 0 0.50714 0.27638 0.40748 
292 0 0 0.50714 0.77638 0.40748 
293 0 0 0.32664 0.4473 0.57297 
294 0 0 0.32664 0.9473 0.57297 
295 0 0 0.82664 0.4473 0.57297 
296 0 0 0.82664 0.9473 0.57297 
297 0 0 0.14615 0.11822 0.73847 
298 0 0 0.14615 0.61822 0.73847 
299 0 0 0.64615 0.11822 0.73847 
300 0 0 0.64615 0.61822 0.73847 
301 0 0 0.323 0.35228 0.11787 
302 0 0 0.323 0.85228 0.11787 
303 0 0 0.823 0.35228 0.11787 
304 0 0 0.823 0.85228 0.11787 
305 0 0 0.1425 0.0232 0.28336 
306 0 0 0.1425 0.5232 0.28336 
307 0 0 0.6425 0.0232 0.28336 
308 0 0 0.6425 0.5232 0.28336 
309 0 0 0.46201 0.19411 0.44885 
310 0 0 0.46201 0.69411 0.44885 
311 0 0 0.96201 0.19411 0.44885 
312 0 0 0.96201 0.69411 0.44885 
313 0 0 0.28152 0.36503 0.61435 
314 0 0 0.28152 0.86503 0.61435 
315 0 0 0.78152 0.36503 0.61435 
316 0 0 0.78152 0.86503 0.61435 
317 0 0 0.10103 0.03595 0.77984 
318 0 0 0.10103 0.53595 0.77984 
319 0 0 0.60103 0.03595 0.77984 
320 0 0 0.60103 0.53595 0.77984 
321 0 0 0.49312 0.18455 0.0765 
322 0 0 0.49312 0.68455 0.0765 
323 0 0 0.99312 0.18455 0.0765 
324 0 0 0.99312 0.68455 0.0765 
325 0 0 0.31263 0.35547 0.24199 
326 0 0 0.31263 0.85547 0.24199 
327 0 0 0.81263 0.35547 0.24199 
328 0 0 0.81263 0.85547 0.24199 
329 0 0 0.13214 0.02638 0.40748 
330 0 0 0.13214 0.52638 0.40748 
331 0 0 0.63214 0.02638 0.40748 
332 0 0 0.63214 0.52638 0.40748 
333 0 0 0.45164 0.1973 0.57297 
334 0 0 0.45164 0.6973 0.57297 
335 0 0 0.95164 0.1973 0.57297 
336 0 0 0.95164 0.6973 0.57297 
337 0 0 0.27115 0.36822 0.73847 
338 0 0 0.27115 0.86822 0.73847 
339 0 0 0.77115 0.36822 0.73847 
340 0 0 0.77115 0.86822 0.73847 
341 0 0 0.448 0.10228 0.11787 
342 0 0 0.448 0.60228 0.11787 
343 0 0 0.948 0.10228 0.11787 
344 0 0 0.948 0.60228 0.11787 
345 0 0 0.2675 0.2732 0.28336 
346 0 0 0.2675 0.7732 0.28336 
347 0 0 0.7675 0.2732 0.28336 
348 0 0 0.7675 0.7732 0.28336 
349 0 0 0.08701 0.44411 0.44885 
350 0 0 0.08701 0.94411 0.44885 
351 0 0 0.58701 0.44411 0.44885 
352 0 0 0.58701 0.94411 0.44885 
353 0 0 0.40652 0.11503 0.61435 
354 0 0 0.40652 0.61503 0.61435 
355 0 0 0.90652 0.11503 0.61435 
356 0 0 0.90652 0.61503 0.61435 
357 0 0 0.22603 0.28595 0.77984 
358 0 0 0.22603 0.78595 0.77984 
359 0 0 0.72603 0.28595 0.77984 
360 0 0 0.72603 0.78595 0.77984 
361 0 0 0.40287 0.02001 0.15924 
362 0 0 0.40287 0.52001 0.15924 
363 0 0 0.90287 0.02001 0.15924 
364 0 0 0.90287 0.52001 0.15924 
365 0 0 0.22238 0.19093 0.32474 
366 0 0 0.22238 0.69093 0.32474 
367 0 0 0.72238 0.19093 0.32474 
368 0 0 0.72238 0.69093 0.32474 
369 0 0 0.04189 0.36184 0.49023 
370 0 0 0.04189 0.86184 0.49023 
371 0 0 0.54189 0.36184 0.49023 
372 0 0 0.54189 0.86184 0.49023 
373 0 0 0.3614 0.03276 0.65572 
374 0 0 0.3614 0.53276 0.65572 
375 0 0 0.8614 0.03276 0.65572 
376 0 0 0.8614 0.53276 0.65572 
377 0 0 0.1809 0.20368 0.82121 
378 0 0 0.1809 0.70368 0.82121 
379 0 0 0.6809 0.20368 0.82121 
380 0 0 0.6809 0.70368 0.82121 
381 0 0 0.03824 0.26682 0.03513 
382 0 0 0.03824 0.76682 0.03513 
383 0 0 0.53824 0.26682 0.03513 
384 0 0 0.53824 0.76682 0.03513 
385 0 0 0.35775 0.43774 0.20062 
386 0 0 0.35775 0.93774 0.20062 
387 0 0 0.85775 0.43774 0.20062 
388 0 0 0.85775 0.93774 0.20062 
389 0 0 0.17726 0.10865 0.36611 
390 0 0 0.17726 0.60865 0.36611 
391 0 0 0.67726 0.10865 0.36611 
392 0 0 0.67726 0.60865 0.36611 
393 0 0 0.49677 0.27957 0.5316 
394 0 0 0.49677 0.77957 0.5316 
395 0 0 0.99677 0.27957 0.5316 
396 0 0 0.99677 0.77957 0.5316 
397 0 0 0.31627 0.45049 0.69709 
398 0 0 0.31627 0.95049 0.69709 
399 0 0 0.81627 0.45049 0.69709 
400 0 0 0.81627 0.95049 0.69709 
401 0 0 0.448 0.22728 0.11787 
402 0 0 0.448 0.72728 0.11787 
403 0 0 0.948 0.22728 0.11787 
404 0 0 0.948 0.72728 0.11787 
405 0 0 0.2675 0.3982 0.28336 
406 0 0 0.2675 0.8982 0.28336 
407 0 0 0.7675 0.3982 0.28336 
408 0 0 0.7675 0.8982 0.28336 
409 0 0 0.08701 0.06911 0.44885 
410 0 0 0.08701 0.56911 0.44885 
411 0 0 0.58701 0.06911 0.44885 
412 0 0 0.58701 0.56911 0.44885 
413 0 0 0.40652 0.24003 0.61435 
414 0 0 0.40652 0.74003 0.61435 
415 0 0 0.90652 0.24003 0.61435 
416 0 0 0.90652 0.74003 0.61435 
417 0 0 0.22603 0.41095 0.77984 
418 0 0 0.22603 0.91095 0.77984 
419 0 0 0.72603 0.41095 0.77984 
420 0 0 0.72603 0.91095 0.77984 
421 0 0 0.40287 0.14501 0.15924 
422 0 0 0.40287 0.64501 0.15924 
423 0 0 0.90287 0.14501 0.15924 
424 0 0 0.90287 0.64501 0.15924 
425 0 0 0.22238 0.31593 0.32474 
426 0 0 0.22238 0.81593 0.32474 
427 0 0 0.72238 0.31593 0.32474 
428 0 0 0.72238 0.81593 0.32474 
429 0 0 0.04189 0.48684 0.49023 
430 0 0 0.04189 0.98684 0.49023 
431 0 0 0.54189 0.48684 0.49023 
432 0 0 0.54189 0.98684 0.49023 
433 0 0 0.3614 0.15776 0.65572 
434 0 0 0.3614 0.65776 0.65572 
435 0 0 0.8614 0.15776 0.65572 
436 0 0 0.8614 0.65776 0.65572 
437 0 0 0.1809 0.32868 0.82121 
438 0 0 0.1809 0.82868 0.82121 
439 0 0 0.6809 0.32868 0.82121 
440 0 0 0.6809 0.82868 0.82121 
441 0 0 0.03824 0.39182 0.03513 
442 0 0 0.03824 0.89182 0.03513 
443 0 0 0.53824 0.39182 0.03513 
444 0 0 0.53824 0.89182 0.03513 
445 0 0 0.35775 0.06274 0.20062 
446 0 0 0.35775 0.56274 0.20062 
447 0 0 0.85775 0.06274 0.20062 
448 0 0 0.85775 0.56274 0.20062 
449 0 0 0.17726 0.23365 0.36611 
450 0 0 0.17726 0.73365 0.36611 
451 0 0 0.67726 0.23365 0.36611 
452 0 0 0.67726 0.73365 0.36611 
453 0 0 0.49677 0.40457 0.5316 
454 0 0 0.49677 0.90457 0.5316 
455 0 0 0.99677 0.40457 0.5316 
456 0 0 0.99677 0.90457 0.5316 
457 0 0 0.31627 0.07549 0.69709 
458 0 0 0.31627 0.57549 0.69709 
459 0 0 0.81627 0.07549 0.69709 
460 0 0 0.81627 0.57549 0.69709 
461 0 0 0.49312 0.30955 0.0765 
462 0 0 0.49312 0.80955 0.0765 
463 0 0 0.99312 0.30955 0.0765 
464 0 0 0.99312 0.80955 0.0765 
465 0 0 0.31263 0.48047 0.24199 
466 0 0 0.31263 0.98047 0.24199 
467 0 0 0.81263 0.48047 0.24199 
468 0 0 0.81263 0.98047 0.24199 
469 0 0 0.13214 0.15138 0.40748 
470 0 0 0.13214 0.65138 0.40748 
471 0 0 0.63214 0.15138 0.40748 
472 0 0 0.63214 0.65138 0.40748 
473 0 0 0.45164 0.3223 0.57297 
474 0 0 0.45164 0.8223 0.57297 
475 0 0 0.95164 0.3223 0.57297 
476 0 0 0.95164 0.8223 0.57297 
477 0 0 0.27115 0.49322 0.73847 
478 0 0 0.27115 0.99322 0.73847 
479 0 0 0.77115 0.49322 0.73847 
480 0 0 0.77115 0.99322 0.73847 
481 0 0 0.40287 0.27001 0.15924 
482 0 0 0.40287 0.77001 0.15924 
483 0 0 0.90287 0.27001 0.15924 
484 0 0 0.90287 0.77001 0.15924 
485 0 0 0.22238 0.44093 0.32474 
486 0 0 0.22238 0.94093 0.32474 
487 0 0 0.72238 0.44093 0.32474 
488 0 0 0.72238 0.94093 0.32474 
489 0 0 0.04189 0.11184 0.49023 
490 0 0 0.04189 0.61184 0.49023 
491 0 0 0.54189 0.11184 0.49023 
492 0 0 0.54189 0.61184 0.49023 
493 0 0 0.3614 0.28276 0.65572 
494 0 0 0.3614 0.78276 0.65572 
495 0 0 0.8614 0.28276 0.65572 
496 0 0 0.8614 0.78276 0.65572 
497 0 0 0.1809 0.45368 0.82121 
498 0 0 0.1809 0.95368 0.82121 
499 0 0 0.6809 0.45368 0.82121 
500 0 0 0.6809 0.95368 0.82121 
501 0 0 0.03824 0.01682 0.03513 
502 0 0 0.03824 0.51682 0.03513 
503 0 0 0.53824 0.01682 0.03513 
504 0 0 0.53824 0.51682 0.03513 
505 0 0 0.35775 0.18774 0.20062 
506 0 0 0.35775 0.68774 0.20062 
507 0 0 0.85775 0.18774 0.20062 
508 0 0 0.85775 0.68774 0.20062 
509 0 0 0.17726 0.35865 0.36611 
510 0 0 0.17726 0.85865 0.36611 
511 0 0 0.67726 0.35865 0.36611 
512 0 0 0.67726 0.85865 0.36611 
513 0 0 0.49677 0.02957 0.5316 
514 0 0 0.49677 0.52957 0.5316 
515 0 0 0.99677 0.02957 0.5316 
516 0 0 0.99677 0.52957 0.5316 
517 0 0 0.31627 0.20049 0.69709 
518 0 0 0.31627 0.70049 0.69709 
519 0 0 0.81627 0.20049 0.69709 
520 0 0 0.81627 0.70049 0.69709 
521 0 0 0.49312 0.43455 0.0765 
522 0 0 0.49312 0.93455 0.0765 
523 0 0 0.99312 0.43455 0.0765 
524 0 0 0.99312 0.93455 0.0765 
525 0 0 0.31263 0.10547 0.24199 
526 0 0 0.31263 0.60547 0.24199 
527 0 0 0.81263 0.10547 0.24199 
528 0 0 0.81263 0.60547 0.24199 
529 0 0 0.13214 0.27638 0.40748 
530 0 0 0.13214 0.77638 0.40748 
531 0 0 0.63214 0.27638 0.40748 
532 0 0 0.63214 0.77638 0.40748 
533 0 0 0.45164 0.4473 0.57297 
534 0 0 0.45164 0.9473 0.57297 
535 0 0 0.95164 0.4473 0.57297 
536 0 0 0.95164 0.9473 0.57297 
537 0 0 0.27115 0.11822 0.73847 
538 0 0 0.27115 0.61822 0.73847 
539 0 0 0.77115 0.11822 0.73847 
540 0 0 0.77115 0.61822 0.73847 
541 0 0 0.448 0.35228 0.11787 
542 0 0 0.448 0.85228 0.11787 
543 0 0 0.948 0.35228 0.11787 
544 0 0 0.948 0.85228 0.11787 
545 0 0 0.2675 0.0232 0.28336 
546 0 0 0.2675 0.5232 0.28336 
547 0 0 0.7675 0.0232 0.28336 
548 0 0 0.7675 0.5232 0.28336 
549 0 0 0.08701 0.19411 0.44885 
550 0 0 0.08701 0.69411 0.44885 
551 0 0 0.58701 0.19411 0.44885 
552 0 0 0.58701 0.69411 0.44885 
553 0 0 0.40652 0.36503 0.61435 
554 0 0 0.40652 0.86503 0.61435 
555 0 0 0.90652 0.36503 0.61435 
556 0 0 0.90652 0.86503 0.61435 
557 0 0 0.22603 0.03595 0.77984 
558 0 0 0.22603 0.53595 0.77984 
559 0 0 0.72603 0.03595 0.77984 
560 0 0 0.72603 0.53595 0.77984 
561 0 0 0.03824 0.14182 0.03513 
562 0 0 0.03824 0.64182 0.03513 
563 0 0 0.53824 0.14182 0.03513 
564 0 0 0.53824 0.64182 0.03513 
565 0 0 0.35775 0.31274 0.20062 
566 0 0 0.35775 0.81274 0.20062 
567 0 0 0.85775 0.31274 0.20062 
568 0 0 0.85775 0.81274 0.20062 
569 0 0 0.17726 0.48365 0.36611 
570 0 0 0.17726 0.98365 0.36611 
571 0 0 0.67726 0.48365 0.36611 
572 0 0 0.67726 0.98365 0.36611 
573 0 0 0.49677 0.15457 0.5316 
574 0 0 0.49677 0.65457 0.5316 
575 0 0 0.99677 0.15457 0.5316 
576 0 0 0.99677 0.65457 0.5316 
577 0 0 0.31627 0.32549 0.69709 
578 0 0 0.31627 0.82549 0.69709 
579 0 0 0.81627 0.32549 0.69709 
580 0 0 0.81627 0.82549 0.69709 
581 0 0 0.49312 0.05955 0.0765 
582 0 0 0.49312 0.55955 0.0765 
583 0 0 0.99312 0.05955 0.0765 
584 0 0 0.99312 0.55955 0.0765 
585 0 0 0.31263 0.23047 0.24199 
586 0 0 0.31263 0.73047 0.24199 
587 0 0 0.81263 0.23047 0.24199 
588 0 0 0.81263 0.73047 0.24199 
589 0 0 0.13214 0.40138 0.40748 
590 0 0 0.13214 0.90138 0.40748 
591 0 0 0.63214 0.40138 0.40748 
592 0 0 0.63214 0.90138 0.40748 
593 0 0 0.45164 0.0723 0.57297 
594 0 0 0.45164 0.5723 0.57297 
595 0 0 0.95164 0.0723 0.57297 
596 0 0 0.95164 0.5723 0.57297 
597 0 0 0.27115 0.24322 0.73847 
598 0 0 0.27115 0.74322 0.73847 
599 0 0 0.77115 0.24322 0.73847 
600 0 0 0.77115 0.74322 0.73847 
601 0 0 0.448 0.47728 0.11787 
602 0 0 0.448 0.97728 0.11787 
603 0 0 0.948 0.47728 0.11787 
604 0 0 0.948 0.97728 0.11787 
605 0 0 0.2675 0.1482 0.28336 
606 0 0 0.2675 0.6482 0.28336 
607 0 0 0.7675 0.1482 0.28336 
608 0 0 0.7675 0.6482 0.28336 
609 0 0 0.08701 0.31911 0.44885 
610 0 0 0.08701 0.81911 0.44885 
611 0 0 0.58701 0.31911 0.44885 
612 0 0 0.58701 0.81911 0.44885 
613 0 0 0.40652 0.49003 0.61435 
614 0 0 0.40652 0.99003 0.61435 
615 0 0 0.90652 0.49003 0.61435 
616 0 0 0.90652 0.99003 0.61435 
617 0 0 0.22603 0.16095 0.77984 
618 0 0 0.22603 0.66095 0.77984 
619 0 0 0.72603 0.16095 0.77984 
620 0 0 0.72603 0.66095 0.77984 
621 0 0 0.40287 0.39501 0.15924 
622 0 0 0.40287 0.89501 0.15924 
623 0 0 0.90287 0.39501 0.15924 
624 0 0 0.90287 0.89501 0.15924 
625 0 0 0.22238 0.06593 0.32474 
626 0 0 0.22238 0.56593 0.32474 
627 0 0 0.72238 0.06593 0.32474 
628 0 0 0.72238 0.56593 0.32474 
629 0 0 0.04189 0.23684 0.49023 
630 0 0 0.04189 0.73684 0.49023 
631 0 0 0.54189 0.23684 0.49023 
632 0 0 0.54189 0.73684 0.49023 
633 0 0 0.3614 0.40776 0.65572 
634 0 0 0.3614 0.90776 0.65572 
635 0 0 0.8614 0.40776 0.65572 
636 0 0 0.8614 0.90776 0.65572 
637 0 0 0.1809 0.07868 0.82121 
638 0 0 0.1809 0.57868 0.82121 
639 0 0 0.6809 0.07868 0.82121 
640 0 0 0.6809 0.57868 0.82121 
641 0 0 0.073 0.22728 0.11787 
642 0 0 0.073 0.72728 0.11787 
643 0 0 0.573 0.22728 0.11787 
644 0 0 0.573 0.72728 0.11787 
645 0 0 0.3925 0.3982 0.28336 
646 0 0 0.3925 0.8982 0.28336 
647 0 0 0.8925 0.3982 0.28336 
648 0 0 0.8925 0.8982 0.28336 
649 0 0 0.21201 0.06911 0.44885 
650 0 0 0.21201 0.56911 0.44885 
651 0 0 0.71201 0.06911 0.44885 
652 0 0 0.71201 0.56911 0.44885 
653 0 0 0.03152 0.24003 0.61435 
654 0 0 0.03152 0.74003 0.61435 
655 0 0 0.53152 0.24003 0.61435 
656 0 0 0.53152 0.74003 0.61435 
657 0 0 0.35103 0.41095 0.77984 
658 0 0 0.35103 0.91095 0.77984 
659 0 0 0.85103 0.41095 0.77984 
660 0 0 0.85103 0.91095 0.77984 
661 0 0 0.02787 0.14501 0.15924 
662 0 0 0.02787 0.64501 0.15924 
663 0 0 0.52787 0.14501 0.15924 
664 0 0 0.52787 0.64501 0.15924 
665 0 0 0.34738 0.31593 0.32474 
666 0 0 0.34738 0.81593 0.32474 
667 0 0 0.84738 0.31593 0.32474 
668 0 0 0.84738 0.81593 0.32474 
669 0 0 0.16689 0.48684 0.49023 
670 0 0 0.16689 0.98684 0.49023 
671 0 0 0.66689 0.48684 0.49023 
672 0 0 0.66689 0.98684 0.49023 
673 0 0 0.4864 0.15776 0.65572 
674 0 0 0.4864 0.65776 0.65572 
675 0 0 0.9864 0.15776 0.65572 
676 0 0 0.9864 0.65776 0.65572 
677 0 0 0.3059 0.32868 0.82121 
678 0 0 0.3059 0.82868 0.82121 
679 0 0 0.8059 0.32868 0.82121 
680 0 0 0.8059 0.82868 0.82121 
681 0 0 0.16324 0.39182 0.03513 
682 0 0 0.16324 0.89182 0.03513 
683 0 0 0.66324 0.39182 0.03513 
684 0 0 0.66324 0.89182 0.03513 
685 0 0 0.48275 0.06274 0.20062 
686 0 0 0.48275 0.56274 0.20062 
687 0 0 0.98275 0.06274 0.20062 
688 0 0 0.98275 0.56274 0.20062 
689 0 0 0.30226 0.23365 0.36611 
690 0 0 0.30226 0.73365 0.36611 
691 0 0 0.80226 0.23365 0.36611 
692 0 0 0.80226 0.73365 0.36611 
693 0 0 0.12177 0.40457 0.5316 
694 0 0 0.12177 0.90457 0.5316 
695 0 0 0.62177 0.40457 0.5316 
696 0 0 0.62177 0.90457 0.5316 
697 0 0 0.44127 0.07549 0.69709 
698 0 0 0.44127 0.57549 0.69709 
699 0 0 0.94127 0.07549 0.69709 
700 0 0 0.94127 0.57549 0.69709 
701 0 0 0.11812 0.30955 0.0765 
702 0 0 0.11812 0.80955 0.0765 
703 0 0 0.61812 0.30955 0.0765 
704 0 0 0.61812 0.80955 0.0765 
705 0 0 0.43763 0.48047 0.24199 
706 0 0 0.43763 0.98047 0.24199 
707 0 0 0.93763 0.48047 0.24199 
708 0 0 0.93763 0.98047 0.24199 
709 0 0 0.25714 0.15138 0.40748 
710 0 0 0.25714 0.65138 0.40748 
711 0 0 0.75714 0.15138 0.40748 
712 0 0 0.75714 0.65138 0.40748 
713 0 0 0.07664 0.3223 0.57297 
714 0 0 0.07664 0.8223 0.57297 
715 0 0 0.57664 0.3223 0.57297 
716 0 0 0.57664 0.8223 0.57297 
717 0 0 0.39615 0.49322 0.73847 
718 0 0 0.39615 0.99322 0.73847 
719 0 0 0.89615 0.49322 0.73847 
720 0 0 0.89615 0.99322 0.73847 
721 0 0 0.02787 0.27001 0.15924 
722 0 0 0.02787 0.77001 0.15924 
723 0 0 0.52787 0.27001 0.15924 
724 0 0 0.52787 0.77001 0.15924 
725 0 0 0.34738 0.44093 0.32474 
726 0 0 0.34738 0.94093 0.32474 
727 0 0 0.84738 0.44093 0.32474 
728 0 0 0.84738 0.94093 0.32474 
729 0 0 0.16689 0.11184 0.49023 
730 0 0 0.16689 0.61184 0.49023 
731 0 0 0.66689 0.11184 0.49023 
732 0 0 0.66689 0.61184 0.49023 
733 0 0 0.4864 0.28276 0.65572 
734 0 0 0.4864 0.78276 0.65572 
735 0 0 0.9864 0.28276 0.65572 
736 0 0 0.9864 0.78276 0.65572 
737 0 0 0.3059 0.45368 0.82121 
738 0 0 0.3059 0.95368 0.82121 
739 0 0 0.8059 0.45368 0.82121 
740 0 0 0.8059 0.95368 0.82121 
741 0 0 0.16324 0.01682 0.03513 
742 0 0 0.16324 0.51682 0.03513 
743 0 0 0.66324 0.01682 0.03513 
744 0 0 0.66324 0.51682 0.03513 
745 0 0 0.48275 0.18774 0.20062 
746 0 0 0.48275 0.68774 0.20062 
747 0 0 0.98275 0.18774 0.20062 
748 0 0 0.98275 0.68774 0.20062 
749 0 0 0.30226 0.35865 0.36611 
750 0 0 0.30226 0.85865 0.36611 
751 0 0 0.80226 0.35865 0.36611 
752 0 0 0.80226 0.85865 0.36611 
753 0 0 0.12177 0.02957 0.5316 
754 0 0 0.12177 0.52957 0.5316 
755 0 0 0.62177 0.02957 0.5316 
756 0 0 0.62177 0.52957 0.5316 
757 0 0 0.44127 0.20049 0.69709 
758 0 0 0.44127 0.70049 0.69709 
759 0 0 0.94127 0.20049 0.69709 
760 0 0 0.94127 0.70049 0.69709 
761 0 0 0.11812 0.43455 0.0765 
762 0 0 0.11812 0.93455 0.0765 
763 0 0 0.61812 0.43455 0.0765 
764 0 0 0.61812 0.93455 0.0765 
765 0 0 0.43763 0.10547 0.24199 
766 0 0 0.43763 0.60547 0.24199 
767 0 0 0.93763 0.10547 0.24199 
768 0 0 0.93763 0.60547 0.24199 
769 0 0 0.25714 0.27638 0.40748 
770 0 0 0.25714 0.77638 0.40748 
771 0 0 0.75714 0.27638 0.40748 
772 0 0 0.75714 0.77638 0.40748 
773 0 0 0.07664 0.4473 0.57297 
774 0 0 0.07664 0.9473 0.57297 
775 0 0 0.57664 0.4473 0.57297 
776 0 0 0.57664 0.9473 0.57297 
777 0 0 0.39615 0.11822 0.73847 
778 0 0 0.39615 0.61822 0.73847 
779 0 0 0.89615 0.11822 0.73847 
780 0 0 0.89615 0.61822 0.73847 
781 0 0 0.073 0.35228 0.11787 
782 0 0 0.073 0.85228 0.11787 
783 0 0 0.573 0.35228 0.11787 
784 0 0 0.573 0.85228 0.11787 
785 0 0 0.3925 0.0232 0.28336 
786 0 0 0.3925 0.5232 0.28336 
787 0 0 0.8925 0.0232 0.28336 
788 0 0 0.8925 0.5232 0.28336 
789 0 0 0.21201 0.19411 0.44885 
790 0 0 0.21201 0.69411 0.44885 
791 0 0 0.71201 0.19411 0.44885 
792 0 0 0.71201 0.69411 0.44885 
793 0 0 0.03152 0.36503 0.61435 
794 0 0 0.03152 0.86503 0.61435 
795 0 0 0.53152 0.36503 0.61435 
796 0 0 0.53152 0.86503 0.61435 
797 0 0 0.35103 0.03595 0.77984 
798 0 0 0.35103 0.53595 0.77984 
799 0 0 0.85103 0.03595 0.77984 
800 0 0 0.85103 0.53595 0.77984 
801 0 0 0.16324 0.14182 0.03513 
802 0 0 0.16324 0.64182 0.03513 
803 0 0 0.66324 0.14182 0.03513 
804 0 0 0.66324 0.64182 0.03513 
805 0 0 0.48275 0.31274 0.20062 
806 0 0 0.48275 0.81274 0.20062 
807 0 0 0.98275 0.31274 0.20062 
808 0 0 0.98275 0.81274 0.20062 
809 0 0 0.30226 0.48365 0.36611 
810 0 0 0.30226 0.98365 0.36611 
811 0 0 0.80226 0.48365 0.36611 
812 0 0 0.80226 0.98365 0.36611 
813 0 0 0.12177 0.15457 0.5316 
814 0 0 0.12177 0.65457 0.5316 
815 0 0 0.62177 0.15457 0.5316 
816 0 0 0.62177 0.65457 0.5316 
817 0 0 0.44127 0.32549 0.69709 
818 0 0 0.44127 0.82549 0.69709 
819 0 0 0.94127 0.32549 0.69709 
820 0 0 0.94127 0.82549 0.69709 
821 0 0 0.11812 0.05955 0.0765 
822 0 0 0.11812 0.55955 0.0765 
823 0 0 0.61812 0.05955 0.0765 
824 0 0 0.61812 0.55955 0.0765 
825 0 0 0.43763 0.23047 0.24199 
826 0 0 0.43763 0.73047 0.24199 
827 0 0 0.93763 0.23047 0.24199 
828 0 0 0.93763 0.73047 0.24199 
829 0 0 0.25714 0.40138 0.40748 
830 0 0 0.25714 0.90138 0.40748 
831 0 0 0.75714 0.40138 0.40748 
832 0 0 0.75714 0.90138 0.40748 
833 0 0 0.07664 0.0723 0.57297 
834 0 0 0.07664 0.5723 0.57297 
835 0 0 0.57664 0.0723 0.57297 
836 0 0 0.57664 0.5723 0.57297 
837 0 0 0.39615 0.24322 0.73847 
838 0 0 0.39615 0.74322 0.73847 
839 0 0 0.89615 0.24322 0.73847 
840 0 0 0.89615 0.74322 0.73847 
841 0 0 0.073 0.47728 0.11787 
842 0 0 0.073 0.97728 0.11787 
843 0 0 0.573 0.47728 0.11787 
844 0 0 0.573 0.97728 0.11787 
845 0 0 0.3925 0.1482 0.28336 
846 0 0 0.3925 0.6482 0.28336 
847 0 0 0.8925 0.1482 0.28336 
848 0 0 0.8925 0.6482 0.28336 
849 0 0 0.21201 0.31911 0.44885 
850 0 0 0.21201 0.81911 0.44885 
851 0 0 0.71201 0.31911 0.44885 
852 0 0 0.71201 0.81911 0.44885 
853 0 0 0.03152 0.49003 0.61435 
854 0 0 0.03152 0.99003 0.61435 
855 0 0 0.53152 0.49003 0.61435 
856 0 0 0.53152 0.99003 0.61435 
857 0 0 0.35103 0.16095 0.77984 
858 0 0 0.35103 0.66095 0.77984 
859 0 0 0.85103 0.16095 0.77984 
860 0 0 0.85103 0.66095 0.77984 
861 0 0 0.02787 0.39501 0.15924 
862 0 0 0.02787 0.89501 0.15924 
863 0 0 0.52787 0.39501 0.15924 
864 0 0 0.52787 0.89501 0.15924 
865 0 0 0.34738 0.06593 0.32474 
866 0 0 0.34738 0.56593 0.32474 
867 0 0 0.84738 0.06593 0.32474 
868 0 0 0.84738 0.56593 0.32474 
869 0 0 0.16689 0.23684 0.49023 
870 0 0 0.16689 0.73684 0.49023 
871 0 0 0.66689 0.23684 0.49023 
872 0 0 0.66689 0.73684 0.49023 
873 0 0 0.4864 0.40776 0.65572 
874 0 0 0.4864 0.90776 0.65572 
875 0 0 0.9864 0.40776 0.65572 
876 0 0 0.9864 0.90776 0.65572 
877 0 0 0.3059 0.07868 0.82121 
878 0 0 0.3059 0.57868 0.82121 
879 0 0 0.8059 0.07868 0.82121 
880 0 0 0.8059 0.57868 0.82121 
881 0 0 0.11812 0.18455 0.0765 
882 0 0 0.11812 0.68455 0.0765 
883 0 0 0.61812 0.18455 0.0765 
884 0 0 0.61812 0.68455 0.0765 
885 0 0 0.43763 0.35547 0.24199 
886 0 0 0.43763 0.85547 0.24199 
887 0 0 0.93763 0.35547 0.24199 
888 0 0 0.93763 0.85547 0.24199 
889 0 0 0.25714 0.02638 0.40748 
890 0 0 0.25714 0.52638 0.40748 
891 0 0 0.75714 0.02638 0.40748 
892 0 0 0.75714 0.52638 0.40748 
893 0 0 0.07664 0.1973 0.57297 
894 0 0 0.07664 0.6973 0.57297 
895 0 0 0.57664 0.1973 0.57297 
896 0 0 0.57664 0.6973 0.57297 
897 0 0 0.39615 0.36822 0.73847 
898 0 0 0.39615 0.86822 0.73847 
899 0 0 0.89615 0.36822 0.73847 
900 0 0 0.89615 0.86822 0.73847 
901 0 0 0.073 0.10228 0.11787 
902 0 0 0.073 0.60228 0.11787 
903 0 0 0.573 0.10228 0.11787 
904 0 0 0.573 0.60228 0.11787 
905 0 0 0.3925 0.2732 0.28336 
906 0 0 0.3925 0.7732 0.28336 
907 0 0 0.8925 0.2732 0.28336 
908 0 0 0.8925 0.7732 0.28336 
909 0 0 0.21201 0.44411 0.44885 
910 0 0 0.21201 0.94411 0.44885 
911 0 0 0.71201 0.44411 0.44885 
912 0 0 0.71201 0.94411 0.44885 
913 0 0 0.03152 0.11503 0.61435 
914 0 0 0.03152 0.61503 0.61435 
915 0 0 0.53152 0.11503 0.61435 
916 0 0 0.53152 0.61503 0.61435 
917 0 0 0.35103 0.28595 0.77984 
918 0 0 0.35103 0.78595 0.77984 
919 0 0 0.85103 0.28595 0.77984 
920 0 0 0.85103 0.78595 0.77984 
921 0 0 0.02787 0.02001 0.15924 